LAMMPS data file via write_data, version 3 Mar 2020, timestep = 850012

13670 atoms
9 atom types

-1.7044008131444593e-01 5.9805267431317425e+01 xlo xhi
-2.1488596955667045e+00 5.8405043503568898e+01 ylo yhi
-6.2431064444828639e+00 6.1994050858482055e+01 zlo zhi

Masses

1 40.0798
2 28.086
3 15.9994
4 15.9994
5 15.9994
6 1.00797
7 26.982
8 15.9994
9 1.00797

Atoms # full

824 1 9 2.9482176962213913e-01 4.7390582634402785e+00 1.0635881151880923e+01 -6.8929516056386378e-02 1 0 0
780 1 4 -7.8561574177427362e-01 4.6472512757068998e+00 9.8408197558431976e+00 3.9778008763205253e-01 1 0 0
13410 1 5 -6.8904512698803733e-01 4.4270293877724223e+00 3.2378539903271593e+00 4.6703972887869005e+00 0 0 0
13435 1 1 1.3435864043091867e+00 4.5652810886632542e+00 1.0842359307283085e+00 4.9951827528563788e+00 0 0 0
13440 1 3 1.7750586053421318e+00 3.3352772322357160e+00 3.8922512764427855e+00 2.0927723308399506e+00 0 0 0
13453 1 6 -8.1454500097623983e-01 2.8024961410509803e+00 4.5216523182108634e+00 1.7795991582797794e+00 0 0 0
13454 1 6 -1.0274011395774916e+00 4.2064628587218724e+00 4.2568662391844594e+00 2.1224249887781754e+00 0 0 0
13356 1 2 9.8697930646158538e-01 1.8042324405748846e+00 -2.0256109760807822e-01 6.3951799963351554e+00 0 0 0
13364 1 4 -7.4887165426878211e-01 1.6609158740675363e+00 1.3482417702610969e+00 6.0569419369164192e+00 0 0 0
13363 1 3 1.7504846558121101e+00 2.6669829748534721e+00 1.3283120441545067e+00 2.7911717429085083e+00 0 0 0
13371 1 6 -8.8199254803293725e-01 3.3088127603001758e+00 1.3315097378014893e+00 3.4064751675756022e+00 0 1 0
13368 1 6 -9.0499656656106664e-01 2.7151273964069267e+00 2.1578495306544516e+00 2.3448596392231349e+00 0 0 0
13438 1 2 4.0937853183808603e-01 4.0354506630764524e+00 4.6069417148532308e+00 4.1033387973681332e+00 0 0 0
13370 1 6 -4.3758211715350970e-01 1.7276739869950632e+00 -7.0669416250291398e-02 2.8414859691628211e+00 0 1 0
13362 1 4 -8.5941296888357177e-01 3.2375774529964794e+00 -4.1122531325934536e-01 6.9820747442911211e+00 0 1 0
13452 1 6 -1.0874134584089568e+00 6.0928840924679566e+00 4.7872667483062701e+00 3.0861001510687522e+00 0 0 0
13325 1 5 -7.4278676249817810e-01 5.1804103434090338e+00 -7.2778797157237440e-01 4.3822283489955449e+00 0 0 0
13324 1 5 -3.1643808400127266e-01 1.5150712501025896e+00 -1.0510624810884770e+00 2.6776404631773683e+00 0 1 0
11992 1 4 -7.4538542334892965e-01 6.9030627333529875e+00 -8.4539202032505423e-01 7.0681866118832710e+00 0 0 0
13355 1 2 1.9210106722597650e-01 6.1072105019834244e-01 -1.5873807659993500e+00 3.8636279510891827e+00 0 0 0
13451 1 6 -1.0210273757315222e+00 5.6186553199951916e+00 4.9335787844298329e+00 5.8048590541802989e+00 0 0 0
722 1 9 3.5846699874246629e-01 1.0679511114399605e+00 4.7072693582270011e+00 4.5775688134119346e+00 1 0 0
13437 1 2 7.7299081885734178e-01 1.7536669399040954e+00 2.4406946741416684e+00 7.3226677855581901e+00 0 0 0
12074 1 3 1.5500807273058248e+00 7.1209641881403929e+00 4.0038019985387390e+00 6.2512291003029725e+00 0 0 0
13361 1 4 -5.9090002427158406e-01 1.4758616474737090e+00 -1.9434277732573795e+00 5.1245451387676004e+00 0 0 0
13474 1 3 1.6789077419881258e+00 5.3697304788070355e+00 5.1772869334549307e+00 2.7853646719034368e+00 0 0 0
698 1 5 -9.2675076661912459e-01 1.1971476918389741e-01 4.8922905453836183e+00 4.4056914954410704e+00 1 0 0
11989 1 2 4.2061563440587341e-01 7.3571744942834920e+00 2.4093836499612173e+00 6.5995964074189413e+00 0 0 0
12086 1 6 -1.0936346775222252e+00 7.3351363892487642e+00 4.0156929653135629e+00 5.3706807212519720e+00 0 0 0
12081 1 4 -8.1266595420440246e-01 6.0188578619716742e+00 2.2061482500006613e+00 7.3246440106074475e+00 0 0 0
11996 1 3 1.9652612852875702e+00 7.7185970675474911e+00 4.2679073746221734e+00 3.8712058642774685e+00 0 0 0
11994 1 4 -9.1229845029868117e-01 8.1176027349256277e+00 2.9984024969207530e+00 3.2848864457936711e+00 0 0 0
12002 1 6 -9.2230243943594503e-01 9.9696952106192214e+00 3.1791629068490729e-01 2.7929119853322923e+00 0 0 0
11988 1 2 8.0018865778151405e-01 8.8767487377851708e+00 2.2055159743821848e+00 4.3954223490925637e+00 0 0 0
11987 1 2 2.2203107459786858e-01 8.3464334638423043e+00 -4.1354932211438794e-01 6.5807666333522725e+00 0 0 0
12027 1 3 1.5975918469068611e+00 1.0133229203127840e+01 1.3083361521155343e+00 2.8138163219699606e+00 0 0 0
11957 1 5 -6.8535782199177608e-01 8.1332380415157530e+00 1.0032182424313458e+00 5.0882921802343439e+00 0 0 0
11958 1 5 -7.4942582898576182e-01 1.0114139716631810e+01 2.6222822037234645e+00 5.1982008373644506e+00 0 0 0
12001 1 6 -8.5841439912759099e-01 1.0910483609338471e+01 1.5573625815393271e+00 3.0808884615928211e+00 0 0 0
12068 1 1 1.2255170346360948e+00 1.2483207986843256e+01 3.1323983988640500e+00 5.1258944144748693e+00 0 0 0
11990 1 3 1.8759372348350589e+00 1.0185931953685008e+01 -1.2610402325498178e+00 3.1657319398458093e+00 0 0 0
11916 1 6 -8.5255726317080938e-01 9.7908195468698569e+00 -1.2265355857186016e+00 3.9960174335526291e+00 0 1 0
10506 1 5 -7.7683463492718319e-01 1.2438953028853682e+01 1.0758526443123873e+00 6.3206894891290091e+00 0 0 0
12003 1 6 -7.7213033990047886e-01 1.1012041076142783e+01 -1.5391917704080773e+00 3.2192308661805784e+00 0 0 0
11991 1 3 1.1091524841135367e+00 8.6989415000846595e+00 -1.5371550898001274e+00 5.4651126496463913e+00 0 0 0
11984 1 9 2.9286678726678161e-01 1.1546931791084557e+01 4.8753105478580689e+00 7.0831190334900942e+00 0 0 0
11995 1 4 -9.8009465123715656e-01 1.2185427087529927e+01 4.1591825160377054e+00 6.9673974577902849e+00 0 0 0
12004 1 6 -8.7432242596564247e-01 8.4245216579013711e+00 4.7992418005718340e+00 4.0237869846001848e+00 0 0 0
11993 1 4 -7.5849834583970110e-01 9.8360760015227537e+00 -5.6917766887919419e-01 7.1994222875961258e+00 0 0 0
11881 1 1 1.1978580986098575e+00 1.2302636783449246e+01 -1.0358668240337203e+00 7.1270325013211702e+00 0 1 0
10899 1 9 3.1588221218312562e-02 1.4004833574990460e+01 -1.3063427100325185e+00 5.2605780040199006e+00 0 0 0
13444 1 4 -7.5042080843631942e-01 2.7611993593510062e+00 5.4003891747774180e+00 4.5000448509706610e+00 0 0 0
13446 1 3 1.6010238842089632e+00 5.0000508831953399e+00 5.5055430854039100e+00 5.5900289758323787e+00 0 0 0
13447 1 4 -8.3745496499528371e-01 3.8501410103849478e+00 5.4132516758179774e+00 6.8876430373955619e+00 0 0 0
13411 1 5 -8.4793720398957562e-01 3.3287186424502533e+00 7.8186711632023824e+00 6.1608013197135891e+00 0 0 0
13487 1 5 -4.2563771388405225e-01 6.5196863785419321e+00 1.1197092345817767e+01 6.0824808969238662e+00 0 0 0
13515 1 1 1.1302959763855125e+00 5.6302528206234790e+00 9.2812615788929342e+00 5.0992002765145736e+00 0 0 0
13518 1 7 -4.4462823127276407e-01 3.1558651467695364e+00 1.1761635881284455e+01 4.6848226335412599e+00 0 0 0
13520 1 4 -6.0479286459194337e-01 2.9733388270229000e+00 1.0300658015168862e+01 5.7635991763151546e+00 0 0 0
13530 1 6 -5.6603234601932895e-01 5.1819870765974789e+00 6.4883536872421939e+00 3.6560105539454550e+00 0 0 0
13488 1 5 -5.1425049255132416e-01 5.0405039191433438e+00 7.5476730738804800e+00 3.5417622865889151e+00 0 0 0
13524 1 8 -1.6437279257695388e-02 4.3364804012777807e+00 1.0887999707532455e+01 3.4197824990838317e+00 0 0 0
890 1 1 1.1620802039030222e+00 3.7241857970721752e+00 8.8321845567508070e+00 1.9922999827102728e+00 1 0 0
13638 1 9 -2.6781102692613742e-02 4.2059012503904656e+00 1.1102554961243234e+01 2.4081856268713446e+00 0 0 0
906 1 6 -5.2304468871041221e-01 1.4903469263612774e+00 9.1050543362752006e+00 2.5246116384036394e+00 1 0 0
866 1 5 -5.6602007245902097e-01 1.7483520778632917e+00 8.1013069203908330e+00 2.2830643855497472e+00 1 0 0
13594 1 3 1.7238010057275790e+00 6.0725102279664922e-01 1.0409296904359765e+01 2.5030662134785966e+00 0 0 0
13604 1 6 -7.8871001538066909e-01 1.1451981949910330e+00 1.1138970777515784e+01 2.6418394629424342e+00 0 0 0
807 1 1 1.2085058796709307e+00 6.1692223551396652e-01 7.0885568919981647e+00 3.8639765467387295e+00 1 0 0
13527 1 4 -8.8533892397008629e-01 1.3233785604165857e+00 6.5318043828437782e+00 6.8296493078270206e+00 0 0 0
13439 1 2 9.1989857396655328e-01 2.7587585553559766e+00 6.2853203151150820e+00 6.2675212453695339e+00 0 0 0
2272 1 6 -8.1149179822549111e-01 3.9652788905584435e-01 1.2117018790996935e+01 4.0785464245652241e+00 1 0 0
13517 1 2 1.1757292860333479e+00 3.0025387064001321e+00 9.2333822975835371e+00 6.8796274318797286e+00 0 0 0
13533 1 6 -6.2244170985485925e-01 7.1681207632633184e+00 1.0341673162493876e+01 6.1510669110250049e+00 0 0 0
12077 1 4 -7.0865286553648854e-01 7.3168100652737529e+00 8.0826077773691765e+00 6.2560393100861802e+00 0 0 0
13531 1 6 -8.4173359772106038e-01 4.6264962222701822e-02 1.0343205445920569e+01 3.2854884593037581e+00 0 0 0
168 1 3 1.9469778824932766e+00 1.1899857802379172e+00 1.2583512543560113e+01 3.9159021945773280e+00 1 0 0
10591 1 5 -3.3798751233418456e-01 1.4176390848263242e+01 7.5465541943031402e+00 4.6144557341572758e+00 0 0 0
12087 1 6 -7.0256456422774294e-01 8.3890389845896838e+00 6.4702133152254770e+00 3.7305384936877486e+00 0 0 0
13532 1 6 -7.8707094656458887e-01 9.7112673594797929e+00 7.0952658015842029e+00 3.6735369435474370e+00 0 0 0
12107 1 3 1.7629700271381115e+00 9.1686809742733750e+00 6.5724055063849649e+00 4.1696872694242888e+00 0 0 0
12043 1 5 -7.1831432737951295e-01 8.9769966667678780e+00 6.0443124694716834e+00 6.5284885145176847e+00 0 0 0
12079 1 3 1.4699300776520456e+00 8.7485921428566726e+00 1.0007065351340652e+01 5.9677873041246370e+00 0 0 0
12044 1 5 -3.5582226413906681e-01 1.2779376942043552e+01 1.2320152098854766e+01 4.2734138176418108e+00 0 0 0
12066 1 9 3.5473968325911454e-01 1.2957641473633897e+01 8.3810762327298178e+00 5.5466699266044355e+00 0 0 0
12071 1 2 -1.1168419608640794e-01 8.8509318343846886e+00 7.7759431060334050e+00 6.1012384089727725e+00 0 0 0
12078 1 4 -7.5843432485494044e-01 1.2329935990805078e+01 8.9630417017377209e+00 6.0551633963089069e+00 0 0 0
12084 1 6 -6.0066180805919700e-01 1.3695525861952687e+01 1.2296810733342770e+01 4.7222799175423669e+00 0 0 0
12085 1 6 -1.1295183016887540e+00 9.5588863398218837e+00 1.0213027653775869e+01 5.8004028332234281e+00 0 0 0
12148 1 1 1.4419902486357425e+00 1.1362030648719799e+01 1.1180345582981174e+01 5.5720186059671670e+00 0 0 0
12165 1 6 -4.2774017203004194e-01 1.2636056916580543e+01 1.2406797050688327e+01 6.8396199134785016e+00 0 0 0
12153 1 4 -5.9018751331648500e-01 9.6080968190752607e+00 1.2802660116192936e+01 6.4819609496696788e+00 0 0 0
10676 1 5 -3.1415878188157725e-01 1.4606696155648381e+01 9.7666906663930249e+00 2.6147880448808487e+00 0 0 0
12120 1 5 -6.0246850439836419e-01 1.2072114932832323e+01 1.1746624704251584e+01 7.3458503933585568e+00 0 0 0
12029 1 1 1.2090460359944297e+00 1.0891515061775531e+01 8.1816002312714424e+00 2.4684655977435153e+01 0 0 0
13442 1 4 -8.0067147336202993e-01 4.1436965298183992e-01 3.1338261128770029e+00 7.6521987304575294e+00 0 0 0
13448 1 4 -8.3660797264217390e-01 7.6540592038431488e-01 -2.2875466226758057e-01 7.5241214882457275e+00 0 0 0
13333 1 1 1.0115134362845797e+00 4.8824190127996205e+00 3.1662979911919370e-01 8.5471849510751134e+00 0 0 0
13443 1 4 -8.6197600367370608e-01 3.0060714253891629e+00 2.3695522200347598e+00 8.2022627521148550e+00 0 0 0
13441 1 3 1.1057113867442454e+00 1.1270370042647779e+00 8.7806457070911348e-01 8.3679674324643063e+00 0 0 0
13336 1 2 -9.0514425144702718e-02 5.6051550376248436e+00 8.0379527669831430e-01 1.1876137532045023e+01 0 1 0
13342 1 3 1.6783974811925655e+00 6.4835640892163706e+00 -2.1575422314206014e-01 1.2754278320247129e+01 0 1 0
13343 1 4 -7.5494051055256273e-01 6.7080506525211865e+00 1.1175428681718178e+00 1.0846418582818313e+01 0 1 0
13416 1 1 1.2762701092239259e+00 1.4664327517713638e+00 3.0493382869477577e+00 1.2745401883434502e+01 0 0 0
13418 1 2 9.1558133003805914e-02 5.0470460660776935e+00 3.7312865501064238e+00 1.2235153999243032e+01 0 1 0
13421 1 3 1.0127951484750242e+00 5.0172433185057557e+00 2.1883527163247383e+00 1.2441939776512926e+01 0 1 0
13422 1 4 -7.3558177755988430e-01 3.5151511091368088e+00 3.6769828216851037e+00 1.1887174414181974e+01 0 1 0
13423 1 4 -7.2695164465581130e-01 6.2168465468124881e+00 4.1326817605112742e+00 1.1225902172421582e+01 0 1 0
13426 1 4 -6.8979052290740961e-01 4.4641264261398543e+00 -3.3715080716937719e-02 1.1126886628243271e+01 0 1 0
13434 1 1 1.1913450343689493e+00 4.5866589940001052e+00 3.8790335536254479e+00 8.7534162555797153e+00 0 0 0
11981 1 6 -1.0982914240216610e+00 6.6757637300169446e+00 -9.6423846477997444e-01 1.2243381369698968e+01 0 0 0
13420 1 8 -1.4080032732391985e-02 5.5236911867263538e+00 4.2405709941830469e+00 1.3705090348233904e+01 0 1 0
13642 1 9 2.8821135514591012e-01 2.9463643698553916e+00 4.6662240862367170e+00 1.3228779719474712e+01 0 1 0
711 1 4 -7.7442079543446696e-01 1.1234477699908338e+00 9.9845831703385934e-01 1.1946837082810729e+01 1 0 0
710 1 4 -7.9844904692833241e-01 1.0924511162366879e+00 -1.1348164938700811e+00 1.0577920949163319e+01 1 0 0
705 1 2 8.5838404413033220e-01 2.5996105975998079e-01 1.7762078309632934e-02 1.1177990097082818e+01 1 0 0
13630 1 9 2.2378144255074190e-02 1.6032562819777803e+00 -1.0610324051953302e+00 1.2860542322331719e+01 0 1 0
13341 1 8 4.5728585914328525e-02 2.1778448992412258e+00 -1.6694467840126115e+00 1.3509330741666925e+01 0 1 0
13469 1 5 -9.2598589767848216e-01 2.3100103803075300e+00 5.0189062519524459e+00 1.3886756661195276e+01 0 0 0
13643 1 9 1.3593805583017024e-01 6.3136824837857697e+00 4.9040574678790101e+00 1.3548759622893646e+01 0 0 0
13433 1 9 3.0780085403842017e-01 5.7090982293451944e+00 5.4033689324894247e+00 1.0159100790885637e+01 0 0 0
12263 1 9 -2.9723056865704256e-02 7.1648056455443827e+00 2.8667232749858340e+00 1.2671193034503860e+01 0 0 0
12024 1 6 -1.0620434362596047e+00 5.4020480367835360e+00 5.9130654268128258e-01 1.4245874257276071e+01 0 1 0
13431 1 6 -5.3834196316078831e-01 3.9011533452771845e+00 1.7739406612717594e+00 1.4395710893187825e+01 0 0 0
13339 1 4 -9.1082995294756275e-01 6.6118246732373986e+00 -2.0643854219072022e+00 9.8272638832538561e+00 0 1 0
11985 1 1 1.0809886877119670e+00 1.0777818601011239e+01 2.1139976191302088e+00 7.7490418595627508e+00 0 0 0
11997 1 4 -8.2386349789135971e-01 8.3444693962380967e+00 2.6895593384237406e+00 7.7553567458836854e+00 0 0 0
11966 1 1 1.1536494161434876e+00 1.2791022775590889e+01 4.9592917794475024e+00 8.8797580933401434e+00 0 0 0
11965 1 1 1.0121355473822840e+00 8.2680928619026357e+00 1.6480365197955771e-01 9.2062666535877824e+00 0 0 0
11967 1 2 1.2903520000560043e+00 1.1062485965709856e+01 9.3450835898240014e-01 1.1360655061513928e+01 0 0 0
11972 1 4 -8.8904900778080764e-01 1.0450337266022261e+01 1.5713738247292399e+00 1.0074934118829992e+01 0 0 0
11973 1 4 -8.9367098363576014e-01 1.2597770530184766e+01 1.2180481456852803e+00 1.1515388425109336e+01 0 0 0
11974 1 8 6.9594763538807378e-02 8.1563632423759742e+00 3.0117832430190803e+00 1.2889755495095619e+01 0 0 0
11986 1 1 1.0459696004317485e+00 8.2600888506065111e+00 3.2229931556164879e+00 1.0371923929251496e+01 0 0 0
12059 1 4 -7.4386341747598395e-01 9.9472595193958409e+00 4.8185121708919656e+00 1.1529638496238473e+01 0 0 0
10654 1 5 -7.6740133119051801e-01 1.1920189742647841e+01 3.8638504479510201e+00 1.3119445381224390e+01 0 0 0
12021 1 5 -5.7744854999580753e-01 1.0315105856025273e+01 1.4571904228336543e+00 1.2623718527152768e+01 0 0 0
11969 1 2 5.8678248381500286e-01 1.1418245242403319e+01 4.8683192099761978e+00 1.1966832899638566e+01 0 0 0
10896 1 9 3.3943132551294375e-01 1.1838329529182793e+01 2.9896832510791076e+00 1.2775516896128289e+01 0 0 0
11977 1 4 -8.8146134079733396e-01 1.0588221021747167e+01 -5.8031040802506695e-01 1.1428541141894637e+01 0 0 0
10653 1 5 -8.5332228767533058e-01 1.4042368589192696e+01 -7.2530546662427087e-01 1.3735489457673907e+01 0 0 0
11968 1 7 -5.5277507215164634e-01 9.3041550082790856e+00 2.0336678780818347e+00 1.4024135332519956e+01 0 0 0
10598 1 1 9.3493161027325289e-01 1.4265933267040836e+01 3.0800292840595924e+00 1.1596651051367028e+01 0 0 0
11976 1 4 -9.0354872960635191e-01 1.2563010536400753e+01 5.2788262662672389e+00 1.0983143620156467e+01 0 0 0
10534 1 1 1.1559074822993107e+00 1.4571865731426907e+01 -2.5833876745277562e-01 1.1582800657117778e+01 0 0 0
10631 1 4 -6.0785793600039906e-01 1.4789817142733808e+01 -6.0420688201059847e-01 7.5192919153080631e+00 0 0 0
13445 1 4 -8.4394084867661545e-01 5.5569065568823186e+00 5.6696894995388920e+00 9.2157534930036071e+00 0 0 0
13522 1 4 -9.2070985165499108e-01 1.6014033319400391e+00 8.9015464964099920e+00 7.5964917488957200e+00 0 0 0
13521 1 3 1.2458502285835313e+00 1.6005519101123704e+00 7.5343416869111071e+00 7.9455088160736516e+00 0 0 0
13523 1 4 -8.6369347906051475e-01 4.2588468855077561e+00 9.4581334548979772e+00 7.7498943778439831e+00 0 0 0
13417 1 1 1.1163124116969363e+00 6.1508949062328790e+00 7.8785796953052891e+00 8.7836240223439237e+00 0 0 0
13514 1 1 1.1529511386815050e+00 5.6844171315803260e+00 1.1376859352449168e+01 8.2558127937070953e+00 0 0 0
13419 1 2 1.0817469625175054e+00 4.6805256646016478e+00 8.3693345592421462e+00 1.2249449557950259e+01 0 0 0
13425 1 4 -8.1785593636317289e-01 5.7563811494055370e+00 7.9598288583011163e+00 1.1212674233331120e+01 0 0 0
13436 1 1 1.1627744414428474e+00 1.3937212509773882e+00 6.7059908947277362e+00 1.2925346712736754e+01 0 0 0
13493 1 1 1.1626509418563042e+00 1.2435372724677809e+00 9.3678768346445480e+00 1.0632160942375968e+01 0 0 0
13496 1 2 1.3456855484322465e+00 4.2104090151669391e+00 1.1267059554919999e+01 1.1560992544114109e+01 0 0 0
13501 1 4 -8.5680900214570721e-01 2.9778430264391358e+00 1.0908638421646632e+01 1.0738251983426700e+01 0 0 0
13507 1 4 -8.1279196262359443e-01 3.2844716434868770e+00 7.8596874595030579e+00 1.2047491392889047e+01 0 0 0
12179 1 5 -7.8208835993604042e-01 4.7827774811472139e+00 9.9266705239801478e+00 1.2242622545239350e+01 0 0 0
13504 1 4 -8.5651665943562594e-01 1.3533242036563757e+00 9.0082712123749822e+00 1.3074469638353975e+01 0 0 0
13502 1 4 -8.7334947180589551e-01 5.4937520992906528e+00 1.1809233600082399e+01 1.0903701145576390e+01 0 0 0
13503 1 4 -8.0820489996764522e-01 3.6812587582467131e+00 1.2125272106513773e+01 1.2778967131212417e+01 0 0 0
793 1 4 -8.8963780774951717e-01 1.5735464259317405e-01 7.1841066963810025e+00 1.0565935714468495e+01 1 0 0
13534 1 9 3.4127037268537652e-01 2.3061733074863668e+00 9.0018246449754198e+00 1.3001687929936278e+01 0 0 0
13424 1 8 1.9642414729538279e-01 5.1207329812647719e+00 7.7220703580409245e+00 1.3665485836317965e+01 0 0 0
786 1 1 1.3694270333779168e+00 -4.8266431899199859e-02 1.1796580959585981e+01 7.6549042663420996e+00 1 0 0
12098 1 3 2.0487921152729958e+00 7.2991455071913558e+00 1.2924244532893836e+01 1.3885564592101492e+01 0 0 0
12274 1 6 -9.9812968820998460e-01 7.5077377340176774e+00 1.2793883726038194e+01 1.3068261696420176e+01 0 0 0
12101 1 5 -7.2526903810082921e-01 7.5197955074922280e+00 5.9728870001880132e+00 1.3590293104534117e+01 0 0 0
12073 1 3 9.9848542444549249e-01 9.2138989553482080e+00 7.9308568401459816e+00 7.7047451469321100e+00 0 0 0
12070 1 2 7.1544052199882568e-01 9.3967412297541522e+00 5.8799021395726614e+00 8.0076123429531005e+00 0 0 0
12072 1 2 -7.4323324385320313e-02 9.0282623822351660e+00 1.0086916750658187e+01 8.1316947196285838e+00 0 0 0
12160 1 4 -7.6768398246371694e-01 7.9864667195930261e+00 9.8539610761952687e+00 9.3022819325455366e+00 0 0 0
12075 1 4 -8.5982180089577265e-01 8.4022751508536579e+00 6.4163933931806936e+00 9.0697646830056655e+00 0 0 0
12049 1 1 1.2087677055494530e+00 7.9365557021672295e+00 6.3903436406751162e+00 1.1457500492976783e+01 0 0 0
12154 1 3 9.4363434526963885e-01 9.2466558263221419e+00 1.1624900007711465e+01 8.5014972185082271e+00 0 0 0
12076 1 4 -8.3327786678217253e-01 1.0881467021102695e+01 6.2413588736608858e+00 8.1877952847822311e+00 0 0 0
12069 1 1 1.1851163634093476e+00 8.0031505873954316e+00 9.7885410771103096e+00 1.1696069849371250e+01 0 0 0
12080 1 4 -7.5457495035590549e-01 1.0450774999489616e+01 9.7496771843061119e+00 8.7735227983854536e+00 0 0 0
10682 1 1 1.1136899162082119e+00 1.4128626168540858e+01 1.0187022489029617e+01 1.1620314215182415e+01 0 0 0
10708 1 4 -8.3421169887255142e-01 1.4316453001976214e+01 1.0415828595550838e+01 8.9890832926471127e+00 0 0 0
12050 1 1 1.1759767138989814e+00 1.2244085637675136e+01 1.1891410310402660e+01 9.3974905813834066e+00 0 0 0
12051 1 2 1.4726042223142896e-01 1.1361454864227424e+01 7.8673802291038450e+00 1.2353247621076994e+01 0 0 0
12053 1 8 1.0817457747364591e-02 1.1639843588614484e+01 8.6435430036845418e+00 1.3720180075840391e+01 0 0 0
12054 1 3 1.0161349508564037e+00 1.1404601302579614e+01 6.3246429759950678e+00 1.2810253396964502e+01 0 0 0
12055 1 4 -6.6702082324750556e-01 9.8244916478016489e+00 7.9371221657212496e+00 1.1952098328757675e+01 0 0 0
12056 1 4 -7.1859212884588874e-01 1.2505039669001974e+01 8.2984494571149767e+00 1.1362875119852513e+01 0 0 0
12057 1 8 2.9148576645182864e-02 1.0772326374090348e+01 1.1127397166907754e+01 1.3661669152613117e+01 0 0 0
12067 1 1 1.1022715719764686e+00 1.2313337081157563e+01 8.4959579170784423e+00 8.5434862177450679e+00 0 0 0
12276 1 9 4.0706254873990641e-02 1.1296204180264946e+01 1.0356330209427069e+01 1.3304615888034879e+01 0 0 0
12275 1 9 1.3310679591397070e-01 1.2605385151896566e+01 9.0374924276516886e+00 1.3539423162980667e+01 0 0 0
10734 1 5 -4.1927420936763260e-01 1.3853320652311178e+01 9.9110127183093670e+00 1.3849987872291670e+01 0 0 0
12058 1 4 -8.1324711348159384e-01 1.1973024028586122e+01 1.2165754949606637e+01 1.1461064067535180e+01 0 0 0
12052 1 2 3.2311322179340413e-01 1.0742361810085313e+01 1.2272300074914842e+01 1.2496064450380365e+01 0 0 0
12140 1 4 -6.7549017911471487e-01 9.3065921847074726e+00 1.2050242678282736e+01 1.1887339953666125e+01 0 0 0
10714 1 4 -7.7372454228586307e-01 1.4248843522074566e+01 6.9758829041617965e+00 8.1690761686987905e+00 0 0 0
12102 1 5 -7.6278645651537913e-01 7.7947715494924106e+00 9.0207420661654059e+00 1.3680232001370690e+01 0 0 0
10619 1 1 9.5089345347348819e-01 1.4709062598720704e+01 6.7743782241230459e+00 1.0929952408740144e+01 0 0 0
13428 1 5 -3.3620687587797726e-01 -2.3119837047458895e-02 4.1337015664995658e+00 1.6055362246451132e+01 0 0 0
13468 1 5 -4.6331822376817494e-01 2.8514850968695087e+00 2.1657991122520905e+00 1.4424713588491951e+01 0 0 0
750 1 4 -6.6345606683421809e-01 -1.7661418149962201e-02 2.9122402473124358e-02 1.8209980436690767e+01 1 1 0
13335 1 7 -4.4020168879726862e-01 3.5008216351720276e+00 -1.0634670974655955e+00 1.4655587176355917e+01 0 1 0
13395 1 3 1.5906851245712619e+00 4.6952629822719816e+00 5.2380197706707710e-01 1.4862237193107388e+01 0 1 0
13311 1 1 1.3205566473740094e+00 2.3033978905743999e+00 -1.7770159277973102e-01 1.8466183242913129e+01 0 0 0
13377 1 2 1.3619455937319309e+00 6.0358314202319008e+00 5.0335948459811353e-01 1.8712463055470224e+01 0 1 0
13382 1 4 -5.7301864212686893e-01 3.6760799893468716e+00 -1.0804127393173804e+00 1.6567149638642469e+01 0 1 0
13427 1 5 -4.6364238762875848e-01 2.3790403882533004e+00 2.1537261276999198e+00 1.7631547845557630e+01 0 0 0
13455 1 1 1.4020662689210419e+00 6.4079821808894155e-01 3.3694631331348974e+00 1.8478076539672664e+01 0 0 0
13461 1 3 1.8310887095813277e+00 4.0045623814424358e+00 2.8565021580847412e+00 1.9461645363417922e+01 0 1 0
13467 1 4 -7.7002356340939715e-01 4.4902852176832670e+00 5.2931068076040111e-01 1.8843571937820119e+01 0 1 0
13472 1 6 -1.0842174241446987e+00 4.0693278588175561e+00 3.5224275855977507e+00 2.0154457361645143e+01 0 0 0
13473 1 6 -5.0401763289073220e-01 2.6014292842109006e+00 2.6156828712533313e+00 1.8570192803174365e+01 0 0 0
11979 1 5 -8.5971548494578187e-01 6.3906900525144437e+00 1.8616032303218915e+00 1.8001048276451748e+01 0 0 0
785 1 1 1.3474351768768893e+00 2.6910598952063896e+00 4.0158513266294946e+00 1.5998811156188767e+01 1 0 0
13471 1 6 -7.0008020524873560e-01 8.5739738764333051e-01 3.8828722430168034e+00 1.6605243664797445e+01 0 0 0
13376 1 2 7.2000229274852057e-01 5.2673448056672960e+00 -1.1599029430721650e+00 1.6241631255363330e+01 0 1 0
11944 1 1 1.3068967113837646e+00 6.2794493014202892e+00 4.3586078915676509e+00 1.8148168071102315e+01 0 0 0
13641 1 6 -7.3299410944760102e-01 4.6583365059355710e+00 3.0307381962867992e+00 1.8843796381820130e+01 0 0 0
13380 1 4 -7.4343375798199773e-01 6.6898745549233301e+00 -5.4956687204069110e-01 1.7807942770970090e+01 0 1 0
13385 1 4 -7.8015353910269691e-01 6.7325841496973489e+00 6.3811401672850798e-01 2.0077247354044317e+01 0 1 0
12264 1 9 3.0455389965996882e-01 7.0480445484422454e+00 5.1785656146204708e+00 2.0370654008979610e+01 0 0 0
12727 1 4 -7.3117061279793805e-01 9.9072002137353776e-01 2.3743224865647257e+00 2.0528201655738144e+01 0 0 0
13475 1 5 -6.8014610029098399e-01 4.3815533740491652e+00 4.9704493326270809e+00 1.7224886176160332e+01 0 0 0
11978 1 5 -6.1379629340817210e-01 5.3059861690536554e+00 -1.7686823449175249e+00 1.4767145726237759e+01 0 1 0
13457 1 2 1.6396013821142521e+00 4.0956331133710355e+00 4.7087358738630991e+00 2.0933617897829052e+01 0 1 0
11971 1 3 1.9665882991035339e+00 1.2442486382628292e+01 -4.2764424468040158e-01 1.4218137115802257e+01 0 0 0
11980 1 6 -9.7510106333732438e-01 7.6010746433423284e+00 -1.7874812546139507e-01 1.4432951040239951e+01 0 0 0
12023 1 6 -8.9860292827154542e-01 7.6529434940419101e+00 1.0030457630979761e+00 1.6314146131084392e+01 0 0 0
10615 1 6 -8.0945995837634621e-01 1.2122004716605357e+01 -1.1300268652402388e+00 1.4707222952313552e+01 0 0 0
10597 1 6 -8.9000158053453959e-01 1.4372007424287190e+01 2.0995324091481611e+00 1.5374696055532057e+01 0 0 0
10649 1 5 -4.3346236593787585e-01 1.4413274984775716e+01 8.5266854799924063e-01 1.7912835183969317e+01 0 0 0
10529 1 6 -9.0073840735378230e-01 1.2506607771789486e+01 3.4329443034934282e-01 1.4748657648233534e+01 0 1 0
11970 1 3 2.1470911362314804e+00 8.2666825219765716e+00 6.1134254701886930e-02 1.4984386394841428e+01 0 0 0
13384 1 3 1.9569178666116691e+00 7.8478728361541750e+00 1.6462639473640626e+00 1.6989321592673601e+01 0 1 0
12022 1 6 -8.5344082961660506e-01 8.0986251075504416e+00 2.4085043840721365e+00 1.6643482408466788e+01 0 0 0
10616 1 6 -8.1930465870919733e-01 8.8536651225578673e+00 -5.5420977555870077e-01 1.5275476870336613e+01 0 0 0
9162 1 6 -8.3292247613445791e-01 1.2392779901717899e+01 3.6268023037135788e+00 1.7234675110171342e+01 0 0 0
9249 1 6 -7.2659060463731406e-01 1.2272129082350322e+01 1.1144616319091651e+00 1.6725612548078033e+01 0 0 0
10613 1 6 -6.6192537489887304e-01 1.3544231566507818e+01 3.1706326649139638e+00 1.6345949203296847e+01 0 0 0
10524 1 3 2.1774869015387792e+00 1.3261730446670279e+01 3.9385130429745780e+00 1.6865168039454986e+01 0 0 0
9290 1 6 -8.3423038350449230e-01 1.2141835797926415e+01 2.1272545451687428e+00 1.5772096573549030e+01 0 0 0
12106 1 6 -8.2548892643224192e-01 9.8407184286120462e+00 1.9598258160139286e+00 1.5828528116222961e+01 0 0 0
10611 1 5 -8.0699705139269873e-01 1.0537824202792239e+01 2.3306346371965949e+00 1.8778981462076761e+01 0 0 0
10657 1 6 -7.7318485825845518e-01 9.6239752183873222e+00 1.9922914993895791e-01 1.6581786263188501e+01 0 0 0
10658 1 6 -1.1286253995985094e+00 1.0697417809345188e+01 -6.9743831392249156e-02 1.8309956004289042e+01 0 0 0
11963 1 6 -7.1307973501089816e-01 1.0968889465193133e+01 2.7068493375807839e-01 1.6143329012788023e+01 0 0 0
12008 1 2 7.9933000067010862e-01 1.1021741273912884e+01 1.7747849075054989e+00 2.0149362900010427e+01 0 0 0
12009 1 2 4.8654554873053479e-01 1.0831426928071119e+01 3.4744010337886349e+00 1.7760975189941874e+01 0 0 0
12011 1 3 2.3689715972467953e+00 1.0436756155638633e+01 -7.5137466879696635e-02 1.6772922215644137e+01 0 0 0
12012 1 3 1.4973316128806202e+00 1.0830516943864094e+01 -6.5635862146316698e-02 1.9270831268251712e+01 0 0 0
12015 1 4 -8.7861075325952975e-01 9.9705988340094311e+00 3.8428525701450424e+00 1.6521719335819917e+01 0 0 0
12017 1 3 9.1366599647693658e-01 1.0717682602177824e+01 4.7459574987598820e+00 1.8827660392885328e+01 0 0 0
12028 1 3 1.8586737160533631e+00 1.0048815704466264e+01 2.7791138864527101e+00 1.5493720239872303e+01 0 0 0
10603 1 3 2.3169820096659031e+00 1.2696272511904874e+01 1.5430565121613375e+00 1.6070275399289798e+01 0 0 0
9248 1 6 -3.9825749184040804e-01 1.4157513013229719e+01 1.3149484775017040e+00 1.7053604484924804e+01 0 0 0
12018 1 4 -6.4339596802040167e-01 1.2902702891775011e+01 4.7280133570466267e+00 1.9720920183238455e+01 0 0 0
10495 1 1 1.1048729987401100e+00 1.4234070357209951e+01 -3.7615460120822669e-01 2.0031574426964269e+01 0 0 0
12014 1 4 -8.4653703569972771e-01 1.2522210434995682e+01 1.4311776802409422e+00 2.0057885965027751e+01 0 0 0
10614 1 6 -7.9760137688037669e-01 1.3842005994447332e+01 3.9977379086204787e+00 1.7530317677102659e+01 0 0 0
12019 1 4 -8.1027239305636178e-01 9.3943494150820683e+00 -1.6803282489697178e+00 2.0455783637727386e+01 0 0 0
11964 1 6 -8.6936011306427841e-01 9.9897603073218431e+00 -1.7182659969653296e+00 1.6252640797554687e+01 0 0 0
10638 1 1 1.1651753246923708e+00 1.4530500109140936e+01 2.7610915000352221e+00 1.9518187566312630e+01 0 0 0
11933 1 4 -8.7610847428820171e-01 1.2151674359484284e+01 -1.6787128318635036e+00 2.0422560437720929e+01 0 0 0
13470 1 6 -8.5170019887854598e-01 1.0954843521624478e+00 5.3423885300515268e+00 1.8656990627789291e+01 0 0 0
12062 1 6 -7.8513219767450027e-01 5.1622961412375616e+00 8.5684280724807103e+00 1.4282868374992837e+01 0 0 0
12146 1 6 -1.0096551385624781e+00 5.7833301691938432e+00 1.2497135608941138e+01 1.4536702842530177e+01 0 0 0
13460 1 4 -6.7265256712800259e-01 3.4074396818470083e+00 5.7819128825843080e+00 2.0123308118499313e+01 0 1 0
12063 1 6 -8.4842289403361759e-01 4.8100278810755679e+00 1.0425193478700487e+01 1.5054889662968634e+01 0 0 0
13640 1 6 -8.5176710863492078e-01 4.8154951066255043e+00 9.5351710445105589e+00 1.6230344126334632e+01 0 0 0
13500 1 3 1.9801612449750166e+00 4.7599965168066962e+00 9.5774194901079817e+00 1.5309214400462958e+01 0 0 0
12104 1 6 -8.6996221198646195e-01 4.7111236814577850e+00 7.7384182960411882e+00 1.6280906507946977e+01 0 0 0